 CRYSTAL
 PRIMVEC
    2.462790740    0.000000000    0.000000000
   -1.231395370    2.132839345    0.000000000
    0.000000000    0.000000000    7.388372219
 PRIMCOORD
           2           1
C         0.000000000    0.000000000    0.000000000
C         0.000000000    1.421892972    0.000000000
BEGIN_BLOCK_DATAGRID_3D
3D_PWSCF
BEGIN_DATAGRID_3D_UNKNOWN
          25          25          65
  0.000000  0.000000  0.000000
    2.462791    0.000000    0.000000
   -1.231395    2.132839    0.000000
    0.000000    0.000000    7.388372
  0.321176E-01  0.268383E-01  0.197445E-01  0.223630E-01  0.300225E-01  0.326598E-01
  0.307891E-01  0.282650E-01  0.258962E-01  0.239092E-01  0.224153E-01  0.214860E-01
  0.211896E-01  0.214860E-01  0.224153E-01  0.239092E-01  0.258962E-01  0.282650E-01
  0.307891E-01  0.326598E-01  0.300225E-01  0.223630E-01  0.197445E-01  0.268383E-01
  0.321176E-01  0.268383E-01  0.268383E-01  0.207464E-01  0.196685E-01  0.261429E-01
  0.307289E-01  0.296261E-01  0.267015E-01  0.239092E-01  0.214750E-01  0.196260E-01
  0.183676E-01  0.177463E-01  0.177463E-01  0.183676E-01  0.196260E-01  0.214750E-01
  0.239092E-01  0.267015E-01  0.296261E-01  0.307289E-01  0.261429E-01  0.196685E-01
  0.207464E-01  0.268383E-01  0.197445E-01  0.211454E-01  0.197445E-01  0.196685E-01
  0.246162E-01  0.292618E-01  0.287545E-01  0.255839E-01  0.224153E-01  0.196260E-01
  0.174324E-01  0.158848E-01  0.149687E-01  0.146678E-01  0.149687E-01  0.158848E-01
  0.174324E-01  0.196260E-01  0.224153E-01  0.255839E-01  0.287545E-01  0.292618E-01
  0.246162E-01  0.196685E-01  0.197445E-01  0.223630E-01  0.208192E-01  0.208192E-01
  0.223630E-01  0.261429E-01  0.292618E-01  0.284148E-01  0.250207E-01  0.214859E-01
  0.183676E-01  0.158848E-01  0.140780E-01  0.129228E-01  0.123710E-01  0.123710E-01
  0.129228E-01  0.140780E-01  0.158848E-01  0.183676E-01  0.214859E-01  0.250207E-01
  0.284148E-01  0.292618E-01  0.261429E-01  0.223630E-01  0.300225E-01  0.283110E-01
  0.275428E-01  0.283110E-01  0.300225E-01  0.307289E-01  0.287545E-01  0.250207E-01
  0.211896E-01  0.177463E-01  0.149687E-01  0.129227E-01  0.115343E-01  0.107695E-01
  0.105163E-01  0.107695E-01  0.115343E-01  0.129227E-01  0.149687E-01  0.177463E-01
  0.211896E-01  0.250207E-01  0.287545E-01  0.307289E-01  0.300225E-01  0.326598E-01
  0.340669E-01  0.343697E-01  0.343697E-01  0.340669E-01  0.326598E-01  0.296261E-01
  0.255839E-01  0.214859E-01  0.177463E-01  0.146677E-01  0.123710E-01  0.107695E-01
  0.982084E-02  0.936005E-02  0.936005E-02  0.982084E-02  0.107695E-01  0.123710E-01
  0.146677E-01  0.177463E-01  0.214859E-01  0.255839E-01  0.296261E-01  0.326598E-01
  0.307891E-01  0.341105E-01  0.361602E-01  0.368272E-01  0.361602E-01  0.341105E-01
  0.307891E-01  0.267015E-01  0.224153E-01  0.183676E-01  0.149687E-01  0.123710E-01
  0.105163E-01  0.936004E-02  0.873715E-02  0.852492E-02  0.873715E-02  0.936004E-02
  0.105163E-01  0.123710E-01  0.149687E-01  0.183676E-01  0.224153E-01  0.267015E-01
  0.307891E-01  0.282649E-01  0.321829E-01  0.351359E-01  0.367224E-01  0.367224E-01
  0.351359E-01  0.321829E-01  0.282649E-01  0.239092E-01  0.196260E-01  0.158847E-01
  0.129227E-01  0.107695E-01  0.936004E-02  0.852492E-02  0.815222E-02  0.815222E-02
  0.852492E-02  0.936004E-02  0.107695E-01  0.129227E-01  0.158847E-01  0.196260E-01
  0.239092E-01  0.282649E-01  0.258961E-01  0.301781E-01  0.337235E-01  0.360579E-01
  0.368828E-01  0.360579E-01  0.337235E-01  0.301781E-01  0.258961E-01  0.214750E-01
  0.174324E-01  0.140780E-01  0.115343E-01  0.982084E-02  0.873714E-02  0.815222E-02
  0.799425E-02  0.815222E-02  0.873714E-02  0.982084E-02  0.115343E-01  0.140780E-01
  0.174324E-01  0.214750E-01  0.258961E-01  0.239092E-01  0.282649E-01  0.321829E-01
  0.351359E-01  0.367224E-01  0.367224E-01  0.351359E-01  0.321829E-01  0.282649E-01
  0.239092E-01  0.196260E-01  0.158847E-01  0.129227E-01  0.107695E-01  0.936004E-02
  0.852492E-02  0.815222E-02  0.815222E-02  0.852492E-02  0.936004E-02  0.107695E-01
  0.129227E-01  0.158848E-01  0.196260E-01  0.239092E-01  0.224153E-01  0.267015E-01
  0.307891E-01  0.341105E-01  0.361602E-01  0.368272E-01  0.361602E-01  0.341105E-01
  0.307891E-01  0.267015E-01  0.224153E-01  0.183676E-01  0.149687E-01  0.123710E-01
  0.105163E-01  0.936004E-02  0.873714E-02  0.852492E-02  0.873714E-02  0.936004E-02
  0.105163E-01  0.123710E-01  0.149687E-01  0.183676E-01  0.224153E-01  0.214859E-01
  0.255839E-01  0.296261E-01  0.326598E-01  0.340669E-01  0.343697E-01  0.343697E-01
  0.340669E-01  0.326598E-01  0.296261E-01  0.255839E-01  0.214859E-01  0.177463E-01
  0.146677E-01  0.123710E-01  0.107695E-01  0.982084E-02  0.936004E-02  0.936004E-02
  0.982084E-02  0.107695E-01  0.123710E-01  0.146677E-01  0.177463E-01  0.214859E-01
  0.211896E-01  0.250207E-01  0.287545E-01  0.307289E-01  0.300225E-01  0.283110E-01
  0.275428E-01  0.283110E-01  0.300225E-01  0.307289E-01  0.287545E-01  0.250207E-01
  0.211896E-01  0.177463E-01  0.149687E-01  0.129227E-01  0.115343E-01  0.107695E-01
  0.105163E-01  0.107695E-01  0.115343E-01  0.129227E-01  0.149687E-01  0.177463E-01
  0.211896E-01  0.214859E-01  0.250207E-01  0.284149E-01  0.292619E-01  0.261429E-01
  0.223630E-01  0.208193E-01  0.208193E-01  0.223630E-01  0.261429E-01  0.292619E-01
  0.284149E-01  0.250207E-01  0.214859E-01  0.183676E-01  0.158848E-01  0.140780E-01
  0.129227E-01  0.123710E-01  0.123710E-01  0.129227E-01  0.140780E-01  0.158848E-01
  0.183676E-01  0.214859E-01  0.224153E-01  0.255839E-01  0.287545E-01  0.292619E-01
  0.246163E-01  0.196685E-01  0.197445E-01  0.211454E-01  0.197445E-01  0.196685E-01
  0.246163E-01  0.292619E-01  0.287545E-01  0.255839E-01  0.224153E-01  0.196260E-01
  0.174324E-01  0.158847E-01  0.149687E-01  0.146677E-01  0.149687E-01  0.158848E-01
  0.174324E-01  0.196260E-01  0.224153E-01  0.239092E-01  0.267015E-01  0.296261E-01
  0.307289E-01  0.261429E-01  0.196685E-01  0.207465E-01  0.268384E-01  0.268384E-01
  0.207465E-01  0.196685E-01  0.261429E-01  0.307289E-01  0.296261E-01  0.267015E-01
  0.239092E-01  0.214750E-01  0.196260E-01  0.183676E-01  0.177463E-01  0.177463E-01
  0.183676E-01  0.196260E-01  0.214750E-01  0.239092E-01  0.258962E-01  0.282650E-01
  0.307891E-01  0.326598E-01  0.300225E-01  0.223630E-01  0.197445E-01  0.268384E-01
  0.321176E-01  0.268384E-01  0.197445E-01  0.223630E-01  0.300225E-01  0.326598E-01
  0.307891E-01  0.282650E-01  0.258962E-01  0.239092E-01  0.224153E-01  0.214859E-01
  0.211896E-01  0.214859E-01  0.224153E-01  0.239092E-01  0.258962E-01  0.282649E-01
  0.301781E-01  0.321829E-01  0.341106E-01  0.340669E-01  0.283110E-01  0.208193E-01
  0.211454E-01  0.268384E-01  0.268384E-01  0.211454E-01  0.208193E-01  0.283110E-01
  0.340669E-01  0.341105E-01  0.321829E-01  0.301781E-01  0.282650E-01  0.267015E-01
  0.255839E-01  0.250207E-01  0.250207E-01  0.255839E-01  0.267015E-01  0.282649E-01
  0.307891E-01  0.321829E-01  0.337235E-01  0.351359E-01  0.361602E-01  0.343697E-01
  0.275428E-01  0.208193E-01  0.197445E-01  0.207465E-01  0.197445E-01  0.208193E-01
  0.275428E-01  0.343697E-01  0.361602E-01  0.351359E-01  0.337235E-01  0.321829E-01
  0.307891E-01  0.296261E-01  0.287545E-01  0.284148E-01  0.287545E-01  0.296261E-01
  0.307891E-01  0.326598E-01  0.341105E-01  0.351359E-01  0.360579E-01  0.367225E-01
  0.368272E-01  0.343697E-01  0.283110E-01  0.223630E-01  0.196685E-01  0.196685E-01
  0.223630E-01  0.283110E-01  0.343697E-01  0.368272E-01  0.367225E-01  0.360579E-01
  0.351359E-01  0.341105E-01  0.326598E-01  0.307289E-01  0.292618E-01  0.292618E-01
  0.307289E-01  0.326598E-01  0.300225E-01  0.340669E-01  0.361602E-01  0.367225E-01
  0.368828E-01  0.367225E-01  0.361602E-01  0.340669E-01  0.300225E-01  0.261429E-01
  0.246163E-01  0.261429E-01  0.300225E-01  0.340669E-01  0.361602E-01  0.367225E-01
  0.368828E-01  0.367225E-01  0.361602E-01  0.340669E-01  0.300225E-01  0.261429E-01
  0.246162E-01  0.261429E-01  0.300225E-01  0.223630E-01  0.283110E-01  0.343697E-01
  0.368272E-01  0.367225E-01  0.360579E-01  0.351359E-01  0.341106E-01  0.326598E-01
  0.307289E-01  0.292619E-01  0.292619E-01  0.307289E-01  0.326598E-01  0.341106E-01
  0.351359E-01  0.360579E-01  0.367225E-01  0.368272E-01  0.343697E-01  0.283110E-01
  0.223630E-01  0.196685E-01  0.196685E-01  0.223630E-01  0.197445E-01  0.208192E-01
  0.275428E-01  0.343697E-01  0.361602E-01  0.351359E-01  0.337235E-01  0.321829E-01
  0.307891E-01  0.296261E-01  0.287545E-01  0.284149E-01  0.287545E-01  0.296261E-01
  0.307891E-01  0.321829E-01  0.337235E-01  0.351359E-01  0.361602E-01  0.343697E-01
  0.275428E-01  0.208193E-01  0.197445E-01  0.207464E-01  0.197445E-01  0.268383E-01
  0.211454E-01  0.208192E-01  0.283110E-01  0.340669E-01  0.341105E-01  0.321829E-01
  0.301781E-01  0.282650E-01  0.267015E-01  0.255839E-01  0.250207E-01  0.250207E-01
  0.255839E-01  0.267015E-01  0.282650E-01  0.301781E-01  0.321829E-01  0.341105E-01
  0.340669E-01  0.283110E-01  0.208193E-01  0.211454E-01  0.268383E-01  0.268383E-01
  0.321176E-01  0.268383E-01  0.197445E-01  0.223630E-01  0.300225E-01  0.326598E-01
  0.307891E-01  0.282650E-01  0.258962E-01  0.239092E-01  0.224153E-01  0.214860E-01
  0.211896E-01  0.214860E-01  0.224153E-01  0.239092E-01  0.258962E-01  0.282650E-01
  0.307891E-01  0.326598E-01  0.300225E-01  0.223630E-01  0.197445E-01  0.268383E-01
  0.321176E-01  0.247054E-01  0.214690E-01  0.183374E-01  0.229188E-01  0.298887E-01
  0.316080E-01  0.296081E-01  0.271749E-01  0.248985E-01  0.230079E-01  0.215900E-01
  0.207154E-01  0.204371E-01  0.207154E-01  0.215900E-01  0.230079E-01  0.248985E-01
  0.271749E-01  0.296081E-01  0.316080E-01  0.298887E-01  0.229188E-01  0.183374E-01
  0.214690E-01  0.247054E-01  0.214690E-01  0.214690E-01  0.183450E-01  0.199343E-01
  0.265098E-01  0.300449E-01  0.285454E-01  0.256979E-01  0.230079E-01  0.206790E-01
  0.189114E-01  0.177129E-01  0.171258E-01  0.171258E-01  0.177129E-01  0.189114E-01
  0.206790E-01  0.230079E-01  0.256979E-01  0.285454E-01  0.300449E-01  0.265098E-01
  0.199343E-01  0.183450E-01  0.214690E-01  0.183374E-01  0.187228E-01  0.183374E-01
  0.199343E-01  0.251243E-01  0.288375E-01  0.277808E-01  0.246437E-01  0.215900E-01
  0.189114E-01  0.168159E-01  0.153348E-01  0.144605E-01  0.141715E-01  0.144605E-01
  0.153348E-01  0.168159E-01  0.189114E-01  0.215900E-01  0.246437E-01  0.277808E-01
  0.288375E-01  0.251243E-01  0.199343E-01  0.183374E-01  0.229188E-01  0.210257E-01
  0.210257E-01  0.229188E-01  0.265098E-01  0.288375E-01  0.274858E-01  0.241127E-01
  0.207154E-01  0.177129E-01  0.153348E-01  0.136017E-01  0.124955E-01  0.119650E-01
  0.119650E-01  0.124955E-01  0.136017E-01  0.153348E-01  0.177129E-01  0.207154E-01
  0.241127E-01  0.274858E-01  0.288375E-01  0.265098E-01  0.229188E-01  0.298887E-01
  0.285642E-01  0.278998E-01  0.285642E-01  0.298887E-01  0.300449E-01  0.277808E-01
  0.241127E-01  0.204371E-01  0.171257E-01  0.144604E-01  0.124955E-01  0.111628E-01
  0.104302E-01  0.101869E-01  0.104302E-01  0.111628E-01  0.124955E-01  0.144604E-01
  0.171257E-01  0.204371E-01  0.241127E-01  0.277808E-01  0.300449E-01  0.298887E-01
  0.316079E-01  0.332125E-01  0.336878E-01  0.336878E-01  0.332125E-01  0.316079E-01
  0.285454E-01  0.246437E-01  0.207154E-01  0.171257E-01  0.141715E-01  0.119650E-01
  0.104302E-01  0.952134E-02  0.907990E-02  0.907990E-02  0.952134E-02  0.104302E-01
  0.119650E-01  0.141715E-01  0.171257E-01  0.207154E-01  0.246437E-01  0.285454E-01
  0.316079E-01  0.296081E-01  0.328094E-01  0.348209E-01  0.354859E-01  0.348209E-01
  0.328094E-01  0.296081E-01  0.256979E-01  0.215900E-01  0.177129E-01  0.144604E-01
  0.119650E-01  0.101869E-01  0.907990E-02  0.848041E-02  0.827736E-02  0.848041E-02
  0.907990E-02  0.101869E-01  0.119650E-01  0.144604E-01  0.177129E-01  0.215900E-01
  0.256979E-01  0.296081E-01  0.271749E-01  0.309164E-01  0.337329E-01  0.352475E-01
  0.352475E-01  0.337329E-01  0.309164E-01  0.271749E-01  0.230078E-01  0.189114E-01
  0.153348E-01  0.124955E-01  0.104302E-01  0.907989E-02  0.827736E-02  0.792270E-02
  0.792270E-02  0.827736E-02  0.907990E-02  0.104302E-01  0.124955E-01  0.153348E-01
  0.189114E-01  0.230078E-01  0.271749E-01  0.248985E-01  0.289884E-01  0.323766E-01
  0.346073E-01  0.353960E-01  0.346073E-01  0.323766E-01  0.289884E-01  0.248985E-01
  0.206790E-01  0.168159E-01  0.136017E-01  0.111628E-01  0.952134E-02  0.848041E-02
  0.792270E-02  0.777640E-02  0.792270E-02  0.848041E-02  0.952134E-02  0.111628E-01
  0.136017E-01  0.168159E-01  0.206790E-01  0.248985E-01  0.230079E-01  0.271749E-01
  0.309164E-01  0.337329E-01  0.352475E-01  0.352475E-01  0.337329E-01  0.309164E-01
  0.271749E-01  0.230079E-01  0.189114E-01  0.153348E-01  0.124955E-01  0.104302E-01
  0.907989E-02  0.827736E-02  0.792270E-02  0.792270E-02  0.827736E-02  0.907989E-02
  0.104302E-01  0.124955E-01  0.153348E-01  0.189114E-01  0.230079E-01  0.215900E-01
  0.256979E-01  0.296081E-01  0.328094E-01  0.348209E-01  0.354859E-01  0.348209E-01
  0.328094E-01  0.296081E-01  0.256979E-01  0.215900E-01  0.177129E-01  0.144604E-01
  0.119650E-01  0.101869E-01  0.907989E-02  0.848041E-02  0.827736E-02  0.848041E-02
  0.907989E-02  0.101869E-01  0.119650E-01  0.144604E-01  0.177129E-01  0.215900E-01
  0.207154E-01  0.246437E-01  0.285454E-01  0.316080E-01  0.332125E-01  0.336878E-01
  0.336878E-01  0.332125E-01  0.316080E-01  0.285454E-01  0.246437E-01  0.207154E-01
  0.171257E-01  0.141715E-01  0.119650E-01  0.104302E-01  0.952134E-02  0.907989E-02
  0.907989E-02  0.952134E-02  0.104302E-01  0.119650E-01  0.141715E-01  0.171257E-01
  0.207154E-01  0.204371E-01  0.241127E-01  0.277808E-01  0.300449E-01  0.298888E-01
  0.285642E-01  0.278999E-01  0.285642E-01  0.298888E-01  0.300449E-01  0.277808E-01
  0.241127E-01  0.204371E-01  0.171257E-01  0.144604E-01  0.124955E-01  0.111628E-01
  0.104302E-01  0.101869E-01  0.104302E-01  0.111628E-01  0.124955E-01  0.144604E-01
  0.171257E-01  0.204371E-01  0.207154E-01  0.241127E-01  0.274858E-01  0.288376E-01
  0.265098E-01  0.229189E-01  0.210257E-01  0.210257E-01  0.229189E-01  0.265098E-01
  0.288375E-01  0.274858E-01  0.241127E-01  0.207154E-01  0.177129E-01  0.153348E-01
  0.136017E-01  0.124955E-01  0.119650E-01  0.119650E-01  0.124955E-01  0.136017E-01
  0.153348E-01  0.177129E-01  0.207154E-01  0.215900E-01  0.246437E-01  0.277808E-01
  0.288376E-01  0.251243E-01  0.199343E-01  0.183374E-01  0.187229E-01  0.183374E-01
  0.199343E-01  0.251243E-01  0.288375E-01  0.277808E-01  0.246437E-01  0.215900E-01
  0.189114E-01  0.168159E-01  0.153348E-01  0.144604E-01  0.141715E-01  0.144604E-01
  0.153348E-01  0.168159E-01  0.189114E-01  0.215900E-01  0.230079E-01  0.256979E-01
  0.285454E-01  0.300449E-01  0.265098E-01  0.199343E-01  0.183451E-01  0.214690E-01
  0.214690E-01  0.183451E-01  0.199343E-01  0.265098E-01  0.300449E-01  0.285454E-01
  0.256979E-01  0.230079E-01  0.206790E-01  0.189114E-01  0.177129E-01  0.171257E-01
  0.171257E-01  0.177129E-01  0.189114E-01  0.206790E-01  0.230079E-01  0.248985E-01
  0.271749E-01  0.296081E-01  0.316080E-01  0.298888E-01  0.229189E-01  0.183374E-01
  0.214690E-01  0.247054E-01  0.214690E-01  0.183374E-01  0.229189E-01  0.298888E-01
  0.316080E-01  0.296081E-01  0.271749E-01  0.248985E-01  0.230079E-01  0.215900E-01
  0.207154E-01  0.204371E-01  0.207154E-01  0.215900E-01  0.230079E-01  0.248985E-01
  0.271749E-01  0.289884E-01  0.309164E-01  0.328095E-01  0.332125E-01  0.285642E-01
  0.210257E-01  0.187229E-01  0.214690E-01  0.214690E-01  0.187229E-01  0.210257E-01
  0.285642E-01  0.332125E-01  0.328095E-01  0.309164E-01  0.289884E-01  0.271749E-01
  0.256979E-01  0.246437E-01  0.241127E-01  0.241127E-01  0.246437E-01  0.256979E-01
  0.271749E-01  0.296081E-01  0.309164E-01  0.323766E-01  0.337329E-01  0.348209E-01
  0.336878E-01  0.278999E-01  0.210257E-01  0.183374E-01  0.183451E-01  0.183374E-01
  0.210257E-01  0.278999E-01  0.336878E-01  0.348209E-01  0.337329E-01  0.323766E-01
  0.309164E-01  0.296081E-01  0.285454E-01  0.277808E-01  0.274858E-01  0.277808E-01
  0.285454E-01  0.296081E-01  0.316079E-01  0.328094E-01  0.337329E-01  0.346074E-01
  0.352476E-01  0.354859E-01  0.336878E-01  0.285642E-01  0.229189E-01  0.199343E-01
  0.199343E-01  0.229189E-01  0.285642E-01  0.336878E-01  0.354859E-01  0.352476E-01
  0.346074E-01  0.337329E-01  0.328094E-01  0.316080E-01  0.300449E-01  0.288375E-01
  0.288375E-01  0.300449E-01  0.316079E-01  0.298887E-01  0.332125E-01  0.348209E-01
  0.352475E-01  0.353961E-01  0.352476E-01  0.348209E-01  0.332125E-01  0.298888E-01
  0.265099E-01  0.251244E-01  0.265099E-01  0.298888E-01  0.332125E-01  0.348209E-01
  0.352476E-01  0.353961E-01  0.352475E-01  0.348209E-01  0.332125E-01  0.298887E-01
  0.265098E-01  0.251243E-01  0.265098E-01  0.298887E-01  0.229188E-01  0.285642E-01
  0.336878E-01  0.354859E-01  0.352475E-01  0.346074E-01  0.337329E-01  0.328095E-01
  0.316080E-01  0.300450E-01  0.288376E-01  0.288376E-01  0.300450E-01  0.316080E-01
  0.328095E-01  0.337329E-01  0.346074E-01  0.352475E-01  0.354859E-01  0.336878E-01
  0.285642E-01  0.229188E-01  0.199343E-01  0.199343E-01  0.229188E-01  0.183374E-01
  0.210257E-01  0.278998E-01  0.336878E-01  0.348209E-01  0.337329E-01  0.323766E-01
  0.309164E-01  0.296081E-01  0.285455E-01  0.277808E-01  0.274858E-01  0.277808E-01
  0.285455E-01  0.296081E-01  0.309164E-01  0.323766E-01  0.337329E-01  0.348209E-01
  0.336878E-01  0.278998E-01  0.210257E-01  0.183374E-01  0.183450E-01  0.183374E-01
  0.214690E-01  0.187228E-01  0.210257E-01  0.285642E-01  0.332125E-01  0.328094E-01
  0.309164E-01  0.289884E-01  0.271750E-01  0.256979E-01  0.246437E-01  0.241127E-01
  0.241127E-01  0.246437E-01  0.256979E-01  0.271750E-01  0.289884E-01  0.309164E-01
  0.328094E-01  0.332125E-01  0.285642E-01  0.210257E-01  0.187228E-01  0.214690E-01
  0.214690E-01  0.247054E-01  0.214690E-01  0.183374E-01  0.229188E-01  0.298887E-01
  0.316080E-01  0.296081E-01  0.271749E-01  0.248985E-01  0.230079E-01  0.215900E-01
  0.207154E-01  0.204371E-01  0.207154E-01  0.215900E-01  0.230079E-01  0.248985E-01
  0.271749E-01  0.296081E-01  0.316080E-01  0.298887E-01  0.229188E-01  0.183374E-01
  0.214690E-01  0.247054E-01  0.155086E-01  0.157665E-01  0.186184E-01  0.245773E-01
  0.286985E-01  0.284367E-01  0.263444E-01  0.241741E-01  0.221614E-01  0.205266E-01
  0.193091E-01  0.185742E-01  0.183386E-01  0.185742E-01  0.193091E-01  0.205266E-01
  0.221614E-01  0.241741E-01  0.263444E-01  0.284367E-01  0.286985E-01  0.245773E-01
  0.186184E-01  0.157665E-01  0.155086E-01  0.157665E-01  0.157665E-01  0.172900E-01
  0.218948E-01  0.267464E-01  0.276350E-01  0.254987E-01  0.229267E-01  0.205266E-01
  0.184896E-01  0.169395E-01  0.159008E-01  0.153955E-01  0.153955E-01  0.159008E-01
  0.169395E-01  0.184896E-01  0.205266E-01  0.229267E-01  0.254987E-01  0.276350E-01
  0.267464E-01  0.218948E-01  0.172900E-01  0.157665E-01  0.186184E-01  0.176069E-01
  0.186184E-01  0.218948E-01  0.258596E-01  0.270091E-01  0.249555E-01  0.220455E-01
  0.193091E-01  0.169395E-01  0.151023E-01  0.138056E-01  0.130487E-01  0.127917E-01
  0.130487E-01  0.138056E-01  0.151023E-01  0.169395E-01  0.193091E-01  0.220455E-01
  0.249555E-01  0.270091E-01  0.258596E-01  0.218948E-01  0.186184E-01  0.245773E-01
  0.228228E-01  0.228228E-01  0.245773E-01  0.267464E-01  0.270090E-01  0.247526E-01
  0.216005E-01  0.185742E-01  0.159008E-01  0.138056E-01  0.122727E-01  0.113090E-01
  0.108419E-01  0.108419E-01  0.113090E-01  0.122727E-01  0.138056E-01  0.159008E-01
  0.185742E-01  0.216005E-01  0.247526E-01  0.270090E-01  0.267464E-01  0.245773E-01
  0.286985E-01  0.284920E-01  0.282207E-01  0.284920E-01  0.286985E-01  0.276350E-01
  0.249555E-01  0.216004E-01  0.183385E-01  0.153955E-01  0.130487E-01  0.113090E-01
  0.101335E-01  0.949232E-02  0.927822E-02  0.949232E-02  0.101335E-01  0.113090E-01
  0.130487E-01  0.153955E-01  0.183385E-01  0.216005E-01  0.249555E-01  0.276350E-01
  0.286985E-01  0.284367E-01  0.303385E-01  0.311473E-01  0.311473E-01  0.303385E-01
  0.284367E-01  0.254987E-01  0.220455E-01  0.185742E-01  0.153955E-01  0.127917E-01
  0.108419E-01  0.949232E-02  0.869159E-02  0.830509E-02  0.830509E-02  0.869159E-02
  0.949232E-02  0.108419E-01  0.127917E-01  0.153955E-01  0.185742E-01  0.220455E-01
  0.254987E-01  0.284367E-01  0.263444E-01  0.291670E-01  0.309945E-01  0.316153E-01
  0.309945E-01  0.291670E-01  0.263444E-01  0.229267E-01  0.193091E-01  0.159008E-01
  0.130487E-01  0.108419E-01  0.927822E-02  0.830509E-02  0.777081E-02  0.759338E-02
  0.777081E-02  0.830509E-02  0.927822E-02  0.108419E-01  0.130487E-01  0.159008E-01
  0.193091E-01  0.229267E-01  0.263444E-01  0.241741E-01  0.274367E-01  0.298787E-01
  0.311896E-01  0.311896E-01  0.298787E-01  0.274367E-01  0.241741E-01  0.205266E-01
  0.169395E-01  0.138056E-01  0.113090E-01  0.949232E-02  0.830509E-02  0.759338E-02
  0.728198E-02  0.728198E-02  0.759338E-02  0.830509E-02  0.949232E-02  0.113090E-01
  0.138056E-01  0.169395E-01  0.205266E-01  0.241741E-01  0.221614E-01  0.257197E-01
  0.286721E-01  0.306151E-01  0.313034E-01  0.306151E-01  0.286721E-01  0.257197E-01
  0.221614E-01  0.184896E-01  0.151023E-01  0.122727E-01  0.101335E-01  0.869159E-02
  0.777081E-02  0.728198E-02  0.715775E-02  0.728198E-02  0.777081E-02  0.869159E-02
  0.101335E-01  0.122727E-01  0.151023E-01  0.184896E-01  0.221614E-01  0.205266E-01
  0.241741E-01  0.274367E-01  0.298787E-01  0.311896E-01  0.311896E-01  0.298787E-01
  0.274367E-01  0.241741E-01  0.205266E-01  0.169395E-01  0.138056E-01  0.113090E-01
  0.949232E-02  0.830509E-02  0.759337E-02  0.728198E-02  0.728198E-02  0.759337E-02
  0.830509E-02  0.949232E-02  0.113090E-01  0.138056E-01  0.169395E-01  0.205266E-01
  0.193091E-01  0.229267E-01  0.263444E-01  0.291670E-01  0.309945E-01  0.316153E-01
  0.309945E-01  0.291670E-01  0.263444E-01  0.229267E-01  0.193091E-01  0.159008E-01
  0.130487E-01  0.108419E-01  0.927822E-02  0.830509E-02  0.777081E-02  0.759337E-02
  0.777081E-02  0.830509E-02  0.927822E-02  0.108419E-01  0.130487E-01  0.159008E-01
  0.193091E-01  0.185742E-01  0.220455E-01  0.254987E-01  0.284367E-01  0.303385E-01
  0.311473E-01  0.311473E-01  0.303385E-01  0.284367E-01  0.254987E-01  0.220455E-01
  0.185742E-01  0.153955E-01  0.127917E-01  0.108419E-01  0.949232E-02  0.869159E-02
  0.830509E-02  0.830509E-02  0.869159E-02  0.949232E-02  0.108419E-01  0.127917E-01
  0.153955E-01  0.185742E-01  0.183385E-01  0.216005E-01  0.249555E-01  0.276350E-01
  0.286986E-01  0.284920E-01  0.282207E-01  0.284920E-01  0.286986E-01  0.276350E-01
  0.249555E-01  0.216005E-01  0.183385E-01  0.153955E-01  0.130487E-01  0.113090E-01
  0.101335E-01  0.949231E-02  0.927822E-02  0.949232E-02  0.101335E-01  0.113090E-01
  0.130487E-01  0.153955E-01  0.183385E-01  0.185742E-01  0.216005E-01  0.247526E-01
  0.270091E-01  0.267465E-01  0.245773E-01  0.228228E-01  0.228228E-01  0.245773E-01
  0.267465E-01  0.270091E-01  0.247526E-01  0.216005E-01  0.185742E-01  0.159008E-01
  0.138056E-01  0.122727E-01  0.113090E-01  0.108419E-01  0.108419E-01  0.113090E-01
  0.122727E-01  0.138056E-01  0.159008E-01  0.185742E-01  0.193091E-01  0.220455E-01
  0.249555E-01  0.270091E-01  0.258597E-01  0.218948E-01  0.186184E-01  0.176069E-01
  0.186184E-01  0.218948E-01  0.258597E-01  0.270091E-01  0.249555E-01  0.220455E-01
  0.193091E-01  0.169395E-01  0.151023E-01  0.138056E-01  0.130487E-01  0.127917E-01
  0.130487E-01  0.138056E-01  0.151023E-01  0.169395E-01  0.193091E-01  0.205266E-01
  0.229267E-01  0.254987E-01  0.276350E-01  0.267465E-01  0.218948E-01  0.172901E-01
  0.157665E-01  0.157665E-01  0.172901E-01  0.218948E-01  0.267465E-01  0.276350E-01
  0.254987E-01  0.229267E-01  0.205266E-01  0.184896E-01  0.169395E-01  0.159008E-01
  0.153955E-01  0.153955E-01  0.159008E-01  0.169395E-01  0.184896E-01  0.205266E-01
  0.221614E-01  0.241741E-01  0.263445E-01  0.284367E-01  0.286986E-01  0.245773E-01
  0.186184E-01  0.157665E-01  0.155086E-01  0.157665E-01  0.186184E-01  0.245773E-01
  0.286986E-01  0.284367E-01  0.263445E-01  0.241741E-01  0.221614E-01  0.205266E-01
  0.193091E-01  0.185742E-01  0.183385E-01  0.185742E-01  0.193091E-01  0.205266E-01
  0.221614E-01  0.241741E-01  0.257197E-01  0.274367E-01  0.291670E-01  0.303385E-01
  0.284920E-01  0.228228E-01  0.176069E-01  0.157665E-01  0.157665E-01  0.176069E-01
  0.228228E-01  0.284920E-01  0.303385E-01  0.291670E-01  0.274367E-01  0.257197E-01
  0.241741E-01  0.229267E-01  0.220455E-01  0.216005E-01  0.216005E-01  0.220455E-01
  0.229267E-01  0.241741E-01  0.263444E-01  0.274367E-01  0.286721E-01  0.298787E-01
  0.309945E-01  0.311473E-01  0.282207E-01  0.228228E-01  0.186184E-01  0.172901E-01
  0.186184E-01  0.228228E-01  0.282207E-01  0.311473E-01  0.309945E-01  0.298787E-01
  0.286721E-01  0.274367E-01  0.263444E-01  0.254987E-01  0.249555E-01  0.247526E-01
  0.249555E-01  0.254987E-01  0.263444E-01  0.284367E-01  0.291670E-01  0.298787E-01
  0.306151E-01  0.311896E-01  0.316153E-01  0.311473E-01  0.284920E-01  0.245773E-01
  0.218948E-01  0.218948E-01  0.245773E-01  0.284920E-01  0.311473E-01  0.316153E-01
  0.311896E-01  0.306151E-01  0.298787E-01  0.291670E-01  0.284367E-01  0.276350E-01
  0.270091E-01  0.270091E-01  0.276350E-01  0.284367E-01  0.286985E-01  0.303385E-01
  0.309945E-01  0.311896E-01  0.313034E-01  0.311896E-01  0.309945E-01  0.303385E-01
  0.286986E-01  0.267465E-01  0.258597E-01  0.267465E-01  0.286986E-01  0.303385E-01
  0.309945E-01  0.311896E-01  0.313034E-01  0.311896E-01  0.309945E-01  0.303385E-01
  0.286985E-01  0.267464E-01  0.258596E-01  0.267464E-01  0.286985E-01  0.245773E-01
  0.284920E-01  0.311473E-01  0.316153E-01  0.311896E-01  0.306151E-01  0.298787E-01
  0.291670E-01  0.284367E-01  0.276350E-01  0.270091E-01  0.270091E-01  0.276350E-01
  0.284367E-01  0.291670E-01  0.298787E-01  0.306151E-01  0.311896E-01  0.316153E-01
  0.311473E-01  0.284920E-01  0.245773E-01  0.218948E-01  0.218948E-01  0.245773E-01
  0.186184E-01  0.228228E-01  0.282207E-01  0.311473E-01  0.309945E-01  0.298787E-01
  0.286721E-01  0.274368E-01  0.263445E-01  0.254988E-01  0.249555E-01  0.247526E-01
  0.249555E-01  0.254988E-01  0.263445E-01  0.274368E-01  0.286721E-01  0.298787E-01
  0.309945E-01  0.311473E-01  0.282207E-01  0.228228E-01  0.186184E-01  0.172900E-01
  0.186184E-01  0.157665E-01  0.176069E-01  0.228228E-01  0.284920E-01  0.303385E-01
  0.291670E-01  0.274367E-01  0.257197E-01  0.241741E-01  0.229267E-01  0.220455E-01
  0.216005E-01  0.216005E-01  0.220455E-01  0.229267E-01  0.241741E-01  0.257197E-01
  0.274367E-01  0.291670E-01  0.303385E-01  0.284920E-01  0.228228E-01  0.176069E-01
  0.157665E-01  0.157665E-01  0.155086E-01  0.157665E-01  0.186184E-01  0.245773E-01
  0.286985E-01  0.284367E-01  0.263444E-01  0.241741E-01  0.221614E-01  0.205266E-01
  0.193091E-01  0.185742E-01  0.183386E-01  0.185742E-01  0.193091E-01  0.205266E-01
  0.221614E-01  0.241741E-01  0.263444E-01  0.284367E-01  0.286985E-01  0.245773E-01
  0.186184E-01  0.157665E-01  0.155086E-01  0.176368E-01  0.188479E-01  0.219237E-01
  0.247207E-01  0.250937E-01  0.235977E-01  0.217565E-01  0.199436E-01  0.183179E-01
  0.170253E-01  0.160801E-01  0.155273E-01  0.153447E-01  0.155273E-01  0.160801E-01
  0.170253E-01  0.183179E-01  0.199436E-01  0.217565E-01  0.235977E-01  0.250937E-01
  0.247207E-01  0.219237E-01  0.188479E-01  0.176368E-01  0.188479E-01  0.188479E-01
  0.208921E-01  0.235827E-01  0.245990E-01  0.233112E-01  0.211529E-01  0.190055E-01
  0.170253E-01  0.153986E-01  0.141545E-01  0.133408E-01  0.129410E-01  0.129410E-01
  0.133408E-01  0.141545E-01  0.153986E-01  0.170253E-01  0.190055E-01  0.211529E-01
  0.233112E-01  0.245990E-01  0.235827E-01  0.208921E-01  0.188479E-01  0.219237E-01
  0.211249E-01  0.219237E-01  0.235827E-01  0.243274E-01  0.231193E-01  0.207968E-01
  0.183676E-01  0.160801E-01  0.141544E-01  0.126646E-01  0.116312E-01  0.110378E-01
  0.108252E-01  0.110378E-01  0.116312E-01  0.126646E-01  0.141544E-01  0.160801E-01
  0.183676E-01  0.207968E-01  0.231193E-01  0.243274E-01  0.235827E-01  0.219237E-01
  0.247207E-01  0.242906E-01  0.242906E-01  0.247207E-01  0.245990E-01  0.231193E-01
  0.206639E-01  0.180410E-01  0.155273E-01  0.133408E-01  0.116312E-01  0.103796E-01
  0.961423E-02  0.923272E-02  0.923272E-02  0.961423E-02  0.103796E-01  0.116312E-01
  0.133408E-01  0.155273E-01  0.180410E-01  0.206639E-01  0.231193E-01  0.245990E-01
  0.247207E-01  0.250936E-01  0.259369E-01  0.261356E-01  0.259369E-01  0.250936E-01
  0.233112E-01  0.207968E-01  0.180410E-01  0.153447E-01  0.129410E-01  0.110378E-01
  0.961423E-02  0.866114E-02  0.814056E-02  0.796613E-02  0.814056E-02  0.866114E-02
  0.961423E-02  0.110378E-01  0.129410E-01  0.153447E-01  0.180410E-01  0.207968E-01
  0.233112E-01  0.250936E-01  0.235977E-01  0.253922E-01  0.262995E-01  0.262995E-01
  0.253922E-01  0.235977E-01  0.211529E-01  0.183676E-01  0.155273E-01  0.129410E-01
  0.108252E-01  0.923271E-02  0.814055E-02  0.748421E-02  0.717540E-02  0.717541E-02
  0.748421E-02  0.814055E-02  0.923271E-02  0.108252E-01  0.129410E-01  0.155273E-01
  0.183676E-01  0.211529E-01  0.235977E-01  0.217565E-01  0.240118E-01  0.254805E-01
  0.259856E-01  0.254805E-01  0.240118E-01  0.217565E-01  0.190055E-01  0.160801E-01
  0.133408E-01  0.110378E-01  0.923271E-02  0.796612E-02  0.717540E-02  0.673783E-02
  0.659943E-02  0.673783E-02  0.717540E-02  0.796612E-02  0.923271E-02  0.110378E-01
  0.133408E-01  0.160801E-01  0.190055E-01  0.217565E-01  0.199436E-01  0.225543E-01
  0.244929E-01  0.255307E-01  0.255307E-01  0.244929E-01  0.225543E-01  0.199436E-01
  0.170253E-01  0.141544E-01  0.116312E-01  0.961423E-02  0.814055E-02  0.717540E-02
  0.659943E-02  0.634572E-02  0.634572E-02  0.659943E-02  0.717540E-02  0.814055E-02
  0.961423E-02  0.116312E-01  0.141544E-01  0.170253E-01  0.199436E-01  0.183179E-01