 CRYSTAL
 PRIMVEC
    2.462790740    0.000000000    0.000000000
   -1.231395370    2.132839345    0.000000000
    0.000000000    0.000000000    7.388372219
 PRIMCOORD
           2           1
C         0.000000000    0.000000000    0.000000000
C         0.000000000    1.421892972    0.000000000
BEGIN_BLOCK_DATAGRID_3D
3D_PWSCF
BEGIN_DATAGRID_3D_UNKNOWN
          25          25          65
  0.000000  0.000000  0.000000
    2.462791    0.000000    0.000000
   -1.231395    2.132839    0.000000
    0.000000    0.000000    7.388372
  0.155992E-02  0.230895E-02  0.216780E-02  0.594967E-03 -0.104978E-04  0.143077E-04
 -0.726621E-05  0.927433E-06 -0.159316E-04  0.370374E-05  0.708000E-05  0.109810E-04
  0.253913E-04  0.109810E-04  0.708000E-05  0.370374E-05 -0.159316E-04  0.927433E-06
 -0.726621E-05  0.143077E-04 -0.104978E-04  0.594967E-03  0.216780E-02  0.230895E-02
  0.155992E-02  0.230895E-02  0.230895E-02  0.243104E-02  0.111800E-02  0.791929E-04
  0.142320E-04 -0.320413E-05  0.555010E-05  0.370368E-05 -0.723063E-05 -0.262016E-05
 -0.857232E-05 -0.143859E-05 -0.143859E-05 -0.857232E-05 -0.262016E-05 -0.723063E-05
  0.370368E-05  0.555010E-05 -0.320413E-05  0.142320E-04  0.791929E-04  0.111800E-02
  0.243104E-02  0.230895E-02  0.216780E-02  0.243015E-02  0.216780E-02  0.111800E-02
  0.138758E-03  0.249478E-05  0.383480E-05 -0.906311E-05  0.707994E-05 -0.262009E-05
  0.582147E-05  0.620809E-05  0.541064E-05 -0.278553E-05  0.541064E-05  0.620809E-05
  0.582147E-05 -0.262009E-05  0.707994E-05 -0.906311E-05  0.383480E-05  0.249478E-05
  0.138758E-03  0.111800E-02  0.216780E-02  0.594967E-03  0.112208E-02  0.112208E-02
  0.594967E-03  0.791929E-04  0.249477E-05 -0.104972E-05 -0.113615E-04  0.109809E-04
 -0.857232E-05  0.620807E-05  0.999028E-06  0.585069E-05  0.509316E-05  0.509316E-05
  0.585069E-05  0.999028E-06  0.620807E-05 -0.857232E-05  0.109809E-04 -0.113615E-04
 -0.104972E-05  0.249477E-05  0.791929E-04  0.594967E-03 -0.104978E-04  0.749499E-04
  0.145384E-03  0.749499E-04 -0.104978E-04  0.142320E-04  0.383479E-05 -0.113615E-04
  0.253912E-04 -0.143853E-05  0.541075E-05  0.585066E-05 -0.141006E-04 -0.681508E-05
 -0.146258E-04 -0.681508E-05 -0.141006E-04  0.585066E-05  0.541075E-05 -0.143853E-05
  0.253912E-04 -0.113615E-04  0.383480E-05  0.142320E-04 -0.104978E-04  0.143077E-04
  0.165800E-04  0.118947E-04  0.118947E-04  0.165800E-04  0.143077E-04 -0.320413E-05
 -0.906311E-05  0.109809E-04 -0.143852E-05 -0.278529E-05  0.509322E-05 -0.681500E-05
  0.836418E-05 -0.201670E-05 -0.201670E-05  0.836418E-05 -0.681500E-05  0.509322E-05
 -0.278529E-05 -0.143852E-05  0.109809E-04 -0.906311E-05 -0.320413E-05  0.143077E-04
 -0.726621E-05  0.261622E-05  0.956982E-05  0.815882E-05  0.956982E-05  0.261622E-05
 -0.726621E-05  0.555009E-05  0.707993E-05 -0.857232E-05  0.541074E-05  0.509320E-05
 -0.146258E-04 -0.201667E-05  0.637329E-06 -0.118882E-04  0.637329E-06 -0.201667E-05
 -0.146258E-04  0.509320E-05  0.541074E-05 -0.857232E-05  0.707993E-05  0.555009E-05
 -0.726621E-05  0.927448E-06 -0.179666E-05 -0.121761E-04 -0.115973E-04 -0.115973E-04
 -0.121761E-04 -0.179666E-05  0.927448E-06  0.370369E-05 -0.262010E-05  0.620807E-05
  0.585067E-05 -0.681500E-05 -0.201669E-05 -0.118881E-04 -0.492625E-05 -0.492625E-05
 -0.118881E-04 -0.201669E-05 -0.681500E-05  0.585067E-05  0.620807E-05 -0.262010E-05
  0.370369E-05  0.927448E-06 -0.159316E-04  0.144314E-05  0.124741E-04  0.169394E-04
  0.314495E-04  0.169394E-04  0.124741E-04  0.144314E-05 -0.159316E-04 -0.723062E-05
  0.582147E-05  0.999015E-06 -0.141006E-04  0.836419E-05  0.637319E-06 -0.492624E-05
  0.219270E-04 -0.492624E-05  0.637319E-06  0.836419E-05 -0.141006E-04  0.999015E-06
  0.582147E-05 -0.723062E-05 -0.159316E-04  0.370372E-05  0.927553E-06 -0.179667E-05
 -0.121762E-04 -0.115973E-04 -0.115973E-04 -0.121762E-04 -0.179667E-05  0.927553E-06
  0.370372E-05 -0.262016E-05  0.620810E-05  0.585066E-05 -0.681508E-05 -0.201670E-05
 -0.118882E-04 -0.492623E-05 -0.492623E-05 -0.118882E-04 -0.201670E-05 -0.681508E-05
  0.585066E-05  0.620810E-05 -0.262016E-05  0.370372E-05  0.707999E-05  0.555002E-05
 -0.726632E-05  0.261620E-05  0.956996E-05  0.815909E-05  0.956996E-05  0.261620E-05
 -0.726632E-05  0.555002E-05  0.707999E-05 -0.857233E-05  0.541067E-05  0.509314E-05
 -0.146258E-04 -0.201670E-05  0.637311E-06 -0.118881E-04  0.637311E-06 -0.201670E-05
 -0.146258E-04  0.509314E-05  0.541067E-05 -0.857233E-05  0.707999E-05  0.109810E-04
 -0.906320E-05 -0.320410E-05  0.143078E-04  0.165800E-04  0.118946E-04  0.118946E-04
  0.165800E-04  0.143078E-04 -0.320410E-05 -0.906320E-05  0.109810E-04 -0.143861E-05
 -0.278551E-05  0.509314E-05 -0.681507E-05  0.836419E-05 -0.201668E-05 -0.201668E-05
  0.836419E-05 -0.681507E-05  0.509314E-05 -0.278551E-05 -0.143861E-05  0.109810E-04
  0.253913E-04 -0.113615E-04  0.383488E-05  0.142320E-04 -0.104980E-04  0.749493E-04
  0.145383E-03  0.749493E-04 -0.104980E-04  0.142320E-04  0.383488E-05 -0.113615E-04
  0.253913E-04 -0.143861E-05  0.541066E-05  0.585067E-05 -0.141006E-04 -0.681500E-05
 -0.146258E-04 -0.681500E-05 -0.141006E-04  0.585067E-05  0.541066E-05 -0.143861E-05
  0.253913E-04  0.109810E-04 -0.113615E-04 -0.104964E-05  0.249460E-05  0.791923E-04
  0.594960E-03  0.112206E-02  0.112206E-02  0.594960E-03  0.791923E-04  0.249460E-05
 -0.104964E-05 -0.113615E-04  0.109810E-04 -0.857232E-05  0.620810E-05  0.999015E-06
  0.585066E-05  0.509320E-05  0.509320E-05  0.585066E-05  0.999015E-06  0.620810E-05
 -0.857232E-05  0.109810E-04  0.707998E-05 -0.906321E-05  0.383488E-05  0.249459E-05
  0.138757E-03  0.111798E-02  0.216771E-02  0.243003E-02  0.216771E-02  0.111798E-02
  0.138757E-03  0.249459E-05  0.383488E-05 -0.906321E-05  0.707998E-05 -0.262016E-05
  0.582147E-05  0.620807E-05  0.541076E-05 -0.278529E-05  0.541076E-05  0.620807E-05
  0.582147E-05 -0.262016E-05  0.707998E-05  0.370373E-05  0.555001E-05 -0.320409E-05
  0.142320E-04  0.791924E-04  0.111798E-02  0.243091E-02  0.230867E-02  0.230867E-02
  0.243091E-02  0.111798E-02  0.791924E-04  0.142320E-04 -0.320409E-05  0.555001E-05
  0.370373E-05 -0.723062E-05 -0.262010E-05 -0.857232E-05 -0.143854E-05 -0.143854E-05
 -0.857232E-05 -0.262010E-05 -0.723062E-05  0.370373E-05 -0.159316E-04  0.927554E-06
 -0.726633E-05  0.143079E-04 -0.104980E-04  0.594961E-03  0.216772E-02  0.230867E-02
  0.155951E-02  0.230867E-02  0.216772E-02  0.594961E-03 -0.104980E-04  0.143079E-04
 -0.726633E-05  0.927554E-06 -0.159316E-04  0.370368E-05  0.707994E-05  0.109809E-04
  0.253912E-04  0.109809E-04  0.707994E-05  0.370368E-05 -0.159316E-04  0.927438E-06
  0.144315E-05 -0.179669E-05  0.261623E-05  0.165799E-04  0.749497E-04  0.112206E-02
  0.243003E-02  0.230867E-02  0.230867E-02  0.243003E-02  0.112206E-02  0.749497E-04
  0.165799E-04  0.261623E-05 -0.179669E-05  0.144315E-05  0.927438E-06  0.555010E-05
 -0.906311E-05 -0.113614E-04 -0.113614E-04 -0.906311E-05  0.555010E-05  0.927438E-06
 -0.726622E-05 -0.179666E-05  0.124741E-04 -0.121762E-04  0.957001E-05  0.118946E-04
  0.145384E-03  0.112207E-02  0.216772E-02  0.243091E-02  0.216772E-02  0.112207E-02
  0.145384E-03  0.118946E-04  0.957001E-05 -0.121762E-04  0.124741E-04 -0.179666E-05
 -0.726622E-05 -0.320413E-05  0.383479E-05 -0.104972E-05  0.383479E-05 -0.320413E-05
 -0.726622E-05  0.143077E-04  0.261620E-05 -0.121761E-04  0.169394E-04 -0.115974E-04
  0.815914E-05  0.118946E-04  0.749498E-04  0.594962E-03  0.111798E-02  0.111798E-02
  0.594962E-03  0.749498E-04  0.118946E-04  0.815914E-05 -0.115974E-04  0.169394E-04
 -0.121761E-04  0.261620E-05  0.143077E-04  0.142320E-04  0.249478E-05  0.249478E-05
  0.142320E-04  0.143077E-04 -0.104978E-04  0.165800E-04  0.956980E-05 -0.115973E-04
  0.314495E-04 -0.115974E-04  0.957002E-05  0.165799E-04 -0.104980E-04  0.791928E-04
  0.138757E-03  0.791928E-04 -0.104980E-04  0.165799E-04  0.957002E-05 -0.115974E-04
  0.314495E-04 -0.115973E-04  0.956980E-05  0.165800E-04 -0.104978E-04  0.791929E-04
  0.138758E-03  0.791929E-04 -0.104978E-04  0.594967E-03  0.749499E-04  0.118947E-04
  0.815880E-05 -0.115973E-04  0.169394E-04 -0.121763E-04  0.261624E-05  0.143079E-04
  0.142320E-04  0.249455E-05  0.249455E-05  0.142320E-04  0.143079E-04  0.261624E-05
 -0.121763E-04  0.169394E-04 -0.115973E-04  0.815880E-05  0.118947E-04  0.749499E-04
  0.594967E-03  0.111800E-02  0.111800E-02  0.594967E-03  0.216780E-02  0.112208E-02
  0.145384E-03  0.118947E-04  0.956979E-05 -0.121761E-04  0.124741E-04 -0.179670E-05
 -0.726633E-05 -0.320407E-05  0.383493E-05 -0.104959E-05  0.383493E-05 -0.320407E-05
 -0.726633E-05 -0.179670E-05  0.124741E-04 -0.121761E-04  0.956979E-05  0.118947E-04
  0.145384E-03  0.112208E-02  0.216780E-02  0.243104E-02  0.216780E-02  0.230895E-02
  0.243015E-02  0.112208E-02  0.749499E-04  0.165800E-04  0.261620E-05 -0.179667E-05
  0.144316E-05  0.927555E-06  0.554999E-05 -0.906323E-05 -0.113616E-04 -0.113616E-04
 -0.906323E-05  0.554999E-05  0.927555E-06  0.144316E-05 -0.179667E-05  0.261620E-05
  0.165800E-04  0.749499E-04  0.112208E-02  0.243015E-02  0.230895E-02  0.230895E-02
  0.155992E-02  0.230895E-02  0.216780E-02  0.594967E-03 -0.104978E-04  0.143077E-04
 -0.726621E-05  0.927433E-06 -0.159316E-04  0.370374E-05  0.708000E-05  0.109810E-04
  0.253913E-04  0.109810E-04  0.708000E-05  0.370374E-05 -0.159316E-04  0.927433E-06
 -0.726621E-05  0.143077E-04 -0.104978E-04  0.594967E-03  0.216780E-02  0.230895E-02
  0.155992E-02  0.244154E-01  0.219193E-01  0.151365E-01  0.814715E-02  0.451044E-02
  0.299858E-02  0.211897E-02  0.160522E-02  0.131383E-02  0.121804E-02  0.119937E-02
  0.121903E-02  0.124124E-02  0.121903E-02  0.119938E-02  0.121805E-02  0.131386E-02
  0.160527E-02  0.211905E-02  0.299869E-02  0.451060E-02  0.814737E-02  0.151367E-01
  0.219196E-01  0.244154E-01  0.219195E-01  0.219194E-01  0.171968E-01  0.102796E-01
  0.551060E-02  0.344093E-02  0.231954E-02  0.163668E-02  0.121804E-02  0.987317E-03
  0.886137E-03  0.844459E-03  0.840904E-03  0.840907E-03  0.844466E-03  0.886151E-03
  0.987341E-03  0.121808E-02  0.163675E-02  0.231964E-02  0.344107E-02  0.551079E-02
  0.102799E-01  0.171971E-01  0.219195E-01  0.151367E-01  0.172074E-01  0.151365E-01
  0.102796E-01  0.597041E-02  0.374113E-02  0.251434E-02  0.170639E-02  0.119938E-02
  0.886137E-03  0.727433E-03  0.650775E-03  0.622000E-03  0.604722E-03  0.622005E-03
  0.650786E-03  0.727452E-03  0.886170E-03  0.119943E-02  0.170647E-02  0.251446E-02
  0.374128E-02  0.597059E-02  0.102798E-01  0.151367E-01  0.814734E-02  0.103292E-01
  0.103291E-01  0.814721E-02  0.551062E-02  0.374113E-02  0.258605E-02  0.176785E-02
  0.121904E-02  0.844458E-03  0.650774E-03  0.532458E-03  0.489352E-03  0.470014E-03
  0.470016E-03  0.489360E-03  0.532472E-03  0.650798E-03  0.844497E-03  0.121910E-02
  0.176794E-02  0.258616E-02  0.374127E-02  0.551078E-02  0.814734E-02  0.451058E-02
  0.560753E-02  0.610870E-02  0.560746E-02  0.451047E-02  0.344094E-02  0.251434E-02
  0.176785E-02  0.124125E-02  0.840902E-03  0.621996E-03  0.489349E-03  0.400360E-03
  0.376659E-03  0.360813E-03  0.376664E-03  0.400371E-03  0.489367E-03  0.622024E-03
  0.840944E-03  0.124131E-02  0.176794E-02  0.251445E-02  0.344106E-02  0.451058E-02
  0.299869E-02  0.362185E-02  0.401179E-02  0.401176E-02  0.362178E-02  0.299860E-02
  0.231954E-02  0.170639E-02  0.121903E-02  0.840900E-03  0.604714E-03  0.470007E-03
  0.376656E-03  0.344923E-03  0.316822E-03  0.316824E-03  0.344931E-03  0.376669E-03
  0.470028E-03  0.604745E-03  0.840945E-03  0.121910E-02  0.170647E-02  0.231964E-02
  0.299869E-02  0.211905E-02  0.260237E-02  0.295787E-02  0.308558E-02  0.295783E-02
  0.260230E-02  0.211897E-02  0.163668E-02  0.119937E-02  0.844453E-03  0.621992E-03
  0.470005E-03  0.360805E-03  0.316818E-03  0.287050E-03  0.265968E-03  0.287055E-03
  0.316828E-03  0.360821E-03  0.470028E-03  0.622025E-03  0.844498E-03  0.119943E-02
  0.163675E-02  0.211905E-02  0.160528E-02  0.201139E-02  0.234687E-02  0.254626E-02
  0.254624E-02  0.234683E-02  0.201133E-02  0.160521E-02  0.121803E-02  0.886127E-03
  0.650766E-03  0.489343E-03  0.376652E-03  0.316816E-03  0.265964E-03  0.251147E-03
  0.251149E-03  0.265971E-03  0.316828E-03  0.376671E-03  0.489369E-03  0.650801E-03
  0.886174E-03  0.121809E-02  0.160528E-02  0.131387E-02  0.170475E-02  0.207369E-02
  0.233956E-02  0.245026E-02  0.233953E-02  0.207363E-02  0.170469E-02  0.131381E-02
  0.987299E-03  0.727419E-03  0.532448E-03  0.400353E-03  0.344918E-03  0.287046E-03
  0.251145E-03  0.265274E-03  0.251150E-03  0.287056E-03  0.344933E-03  0.400374E-03
  0.532477E-03  0.727458E-03  0.987349E-03  0.131387E-02  0.121807E-02  0.160525E-02
  0.201135E-02  0.234682E-02  0.254620E-02  0.254618E-02  0.234677E-02  0.201129E-02
  0.160518E-02  0.121801E-02  0.886115E-03  0.650759E-03  0.489340E-03  0.376650E-03
  0.316815E-03  0.265963E-03  0.251146E-03  0.251149E-03  0.265970E-03  0.316827E-03
  0.376668E-03  0.489365E-03  0.650794E-03  0.886161E-03  0.121807E-02  0.119940E-02
  0.163670E-02  0.211897E-02  0.260227E-02  0.295775E-02  0.308546E-02  0.295771E-02
  0.260220E-02  0.211890E-02  0.163662E-02  0.119934E-02  0.844433E-03  0.621982E-03
  0.470000E-03  0.360802E-03  0.316816E-03  0.287048E-03  0.265967E-03  0.287053E-03
  0.316826E-03  0.360818E-03  0.470023E-03  0.622014E-03  0.844478E-03  0.119940E-02
  0.121905E-02  0.170640E-02  0.231953E-02  0.299854E-02  0.362166E-02  0.401158E-02
  0.401155E-02  0.362159E-02  0.299845E-02  0.231944E-02  0.170632E-02  0.121899E-02
  0.840876E-03  0.604702E-03  0.470001E-03  0.376652E-03  0.344921E-03  0.316820E-03
  0.316822E-03  0.344929E-03  0.376665E-03  0.470021E-03  0.604732E-03  0.840920E-03
  0.121905E-02  0.124126E-02  0.176786E-02  0.251432E-02  0.344087E-02  0.451032E-02
  0.560720E-02  0.610834E-02  0.560713E-02  0.451021E-02  0.344075E-02  0.251422E-02
  0.176777E-02  0.124120E-02  0.840877E-03  0.621984E-03  0.489343E-03  0.400357E-03
  0.376657E-03  0.360811E-03  0.376662E-03  0.400367E-03  0.489360E-03  0.622011E-03
  0.840919E-03  0.124126E-02  0.121905E-02  0.176786E-02  0.258603E-02  0.374106E-02
  0.551045E-02  0.814687E-02  0.103286E-01  0.103285E-01  0.814674E-02  0.551030E-02
  0.374092E-02  0.258591E-02  0.176777E-02  0.121899E-02  0.844436E-03  0.650763E-03
  0.532453E-03  0.489350E-03  0.470013E-03  0.470015E-03  0.489358E-03  0.532468E-03
  0.650787E-03  0.844474E-03  0.121905E-02  0.119939E-02  0.170640E-02  0.251433E-02
  0.374107E-02  0.597025E-02  0.102793E-01  0.151359E-01  0.172065E-01  0.151357E-01
  0.102791E-01  0.597006E-02  0.374092E-02  0.251422E-02  0.170632E-02  0.119934E-02
  0.886120E-03  0.727427E-03  0.650774E-03  0.622002E-03  0.604725E-03  0.622007E-03
  0.650785E-03  0.727446E-03  0.886152E-03  0.119939E-02  0.121806E-02  0.163669E-02
  0.231953E-02  0.344089E-02  0.551048E-02  0.102793E-01  0.171962E-01  0.219183E-01
  0.219182E-01  0.171959E-01  0.102791E-01  0.551029E-02  0.344075E-02  0.231943E-02
  0.163663E-02  0.121801E-02  0.987308E-03  0.886138E-03  0.844466E-03  0.840914E-03
  0.840916E-03  0.844473E-03  0.886153E-03  0.987333E-03  0.121806E-02  0.131385E-02
  0.160524E-02  0.211898E-02  0.299855E-02  0.451036E-02  0.814694E-02  0.151360E-01
  0.219184E-01  0.244140E-01  0.219181E-01  0.151357E-01  0.814671E-02  0.451020E-02
  0.299844E-02  0.211890E-02  0.160519E-02  0.131382E-02  0.121804E-02  0.119939E-02
  0.121905E-02  0.124127E-02  0.121906E-02  0.119940E-02  0.121806E-02  0.131385E-02
  0.160525E-02  0.170473E-02  0.201135E-02  0.260228E-02  0.362170E-02  0.560727E-02
  0.103287E-01  0.172067E-01  0.219183E-01  0.219182E-01  0.172064E-01  0.103285E-01
  0.560710E-02  0.362158E-02  0.260220E-02  0.201129E-02  0.170470E-02  0.160523E-02
  0.163670E-02  0.170641E-02  0.176788E-02  0.176788E-02  0.170641E-02  0.163671E-02
  0.160525E-02  0.211900E-02  0.201136E-02  0.207367E-02  0.234682E-02  0.295778E-02
  0.401163E-02  0.610844E-02  0.103287E-01  0.151359E-01  0.171961E-01  0.151358E-01
  0.103285E-01  0.610830E-02  0.401153E-02  0.295770E-02  0.234677E-02  0.207364E-02
  0.201135E-02  0.211900E-02  0.231958E-02  0.251438E-02  0.258609E-02  0.251438E-02
  0.231957E-02  0.211900E-02  0.299861E-02  0.260231E-02  0.234684E-02  0.233955E-02
  0.254621E-02  0.308550E-02  0.401162E-02  0.560725E-02  0.814690E-02  0.102792E-01
  0.102792E-01  0.814681E-02  0.560715E-02  0.401155E-02  0.308544E-02  0.254618E-02
  0.233953E-02  0.234684E-02  0.260233E-02  0.299863E-02  0.344099E-02  0.374118E-02
  0.374118E-02  0.344097E-02  0.299861E-02  0.451048E-02  0.362177E-02  0.295782E-02
  0.254623E-02  0.245026E-02  0.254621E-02  0.295776E-02  0.362168E-02  0.451032E-02
  0.551043E-02  0.597019E-02  0.551040E-02  0.451027E-02  0.362163E-02  0.295773E-02
  0.254619E-02  0.245026E-02  0.254625E-02  0.295786E-02  0.362182E-02  0.451053E-02
  0.551069E-02  0.597047E-02  0.551065E-02  0.451048E-02  0.814719E-02  0.560742E-02
  0.401172E-02  0.308555E-02  0.254623E-02  0.233954E-02  0.234681E-02  0.260226E-02
  0.299852E-02  0.344085E-02  0.374102E-02  0.374101E-02  0.344083E-02  0.299850E-02
  0.260224E-02  0.234681E-02  0.233955E-02  0.254626E-02  0.308560E-02  0.401180E-02
  0.560752E-02  0.814728E-02  0.102797E-01  0.102797E-01  0.814719E-02  0.151365E-01
  0.103290E-01  0.610861E-02  0.401171E-02  0.295781E-02  0.234683E-02  0.207365E-02
  0.201133E-02  0.211895E-02  0.231950E-02  0.251429E-02  0.258599E-02  0.251429E-02
  0.231950E-02  0.211895E-02  0.201134E-02  0.207368E-02  0.234687E-02  0.295788E-02
  0.401182E-02  0.610875E-02  0.103292E-01  0.151366E-01  0.171969E-01  0.151365E-01
  0.219194E-01  0.172073E-01  0.103290E-01  0.560740E-02  0.362175E-02  0.260229E-02
  0.201134E-02  0.170471E-02  0.160522E-02  0.163667E-02  0.170637E-02  0.176783E-02
  0.176783E-02  0.170637E-02  0.163667E-02  0.160523E-02  0.170474E-02  0.201139E-02
  0.260237E-02  0.362187E-02  0.560756E-02  0.103292E-01  0.172075E-01  0.219195E-01
  0.219194E-01  0.244154E-01  0.219193E-01  0.151365E-01  0.814715E-02  0.451044E-02
  0.299858E-02  0.211897E-02  0.160522E-02  0.131383E-02  0.121804E-02  0.119937E-02
  0.121903E-02  0.124124E-02  0.121903E-02  0.119938E-02  0.121805E-02  0.131386E-02
  0.160527E-02  0.211905E-02  0.299869E-02  0.451060E-02  0.814737E-02  0.151367E-01
  0.219196E-01  0.244154E-01  0.559174E-01  0.494451E-01  0.348924E-01  0.217563E-01
  0.141406E-01  0.988863E-02  0.713148E-02  0.542095E-02  0.450286E-02  0.415695E-02
  0.410796E-02  0.417920E-02  0.422635E-02  0.417921E-02  0.410797E-02  0.415698E-02
  0.450291E-02  0.542103E-02  0.713161E-02  0.988881E-02  0.141409E-01  0.217566E-01
  0.348927E-01  0.494454E-01  0.559174E-01  0.494453E-01  0.494452E-01  0.389989E-01
  0.257129E-01  0.164074E-01  0.111614E-01  0.777408E-02  0.552828E-02  0.415697E-02
  0.343103E-02  0.310657E-02  0.300150E-02  0.298748E-02  0.298748E-02  0.300151E-02
  0.310659E-02  0.343108E-02  0.415704E-02  0.552839E-02  0.777424E-02  0.111616E-01
  0.164077E-01  0.257133E-01  0.389992E-01  0.494453E-01  0.348927E-01  0.390419E-01
  0.348925E-01  0.257130E-01  0.173836E-01  0.119917E-01  0.836049E-02  0.579546E-02
  0.410799E-02  0.310658E-02  0.257558E-02  0.232927E-02  0.223632E-02  0.219901E-02
  0.223633E-02  0.232929E-02  0.257561E-02  0.310663E-02  0.410808E-02  0.579559E-02
  0.836068E-02  0.119919E-01  0.173838E-01  0.257132E-01  0.348927E-01  0.217566E-01
  0.258784E-01  0.258783E-01  0.217564E-01  0.164075E-01  0.119917E-01  0.858457E-02
  0.599952E-02  0.417925E-02  0.300151E-02  0.232928E-02  0.195105E-02  0.178496E-02
  0.171028E-02  0.171028E-02  0.178497E-02  0.195107E-02  0.232932E-02  0.300158E-02
  0.417934E-02  0.599966E-02  0.858475E-02  0.119919E-01  0.164077E-01  0.217566E-01
  0.141408E-01  0.167524E-01  0.178487E-01  0.167523E-01  0.141407E-01  0.111614E-01
  0.836050E-02  0.599952E-02  0.422640E-02  0.298749E-02  0.223632E-02  0.178496E-02
  0.152421E-02  0.141227E-02  0.137108E-02  0.141228E-02  0.152423E-02  0.178499E-02
  0.223636E-02  0.298756E-02  0.422650E-02  0.599966E-02  0.836067E-02  0.111616E-01
  0.141408E-01  0.988880E-02  0.117605E-01  0.128908E-01  0.128907E-01  0.117604E-01
  0.988865E-02  0.777408E-02  0.579545E-02  0.417924E-02  0.298749E-02  0.219900E-02
  0.171027E-02  0.141226E-02  0.126012E-02  0.118571E-02  0.118571E-02  0.126014E-02
  0.141229E-02  0.171030E-02  0.219905E-02  0.298756E-02  0.417935E-02  0.579559E-02
  0.777424E-02  0.988880E-02  0.713160E-02  0.868011E-02  0.981283E-02  0.102275E-01
  0.981277E-02  0.868000E-02  0.713148E-02  0.552827E-02  0.410798E-02  0.300150E-02
  0.223631E-02  0.171027E-02  0.137107E-02  0.118570E-02  0.108116E-02  0.104256E-02
  0.108117E-02  0.118572E-02  0.137109E-02  0.171031E-02  0.223637E-02  0.300158E-02
  0.410808E-02  0.552839E-02  0.713160E-02  0.542104E-02  0.675396E-02  0.787907E-02
  0.853868E-02  0.853866E-02  0.787899E-02  0.675385E-02  0.542093E-02  0.415695E-02
  0.310656E-02  0.232926E-02  0.178495E-02  0.141226E-02  0.118570E-02  0.104255E-02
  0.984596E-03  0.984600E-03  0.104257E-02  0.118572E-02  0.141229E-02  0.178499E-02
  0.232932E-02  0.310664E-02  0.415705E-02  0.542104E-02  0.450293E-02  0.573896E-02
  0.692189E-02  0.778827E-02  0.812261E-02  0.778821E-02  0.692180E-02  0.573885E-02
  0.450283E-02  0.343100E-02  0.257556E-02  0.195103E-02  0.152419E-02  0.126011E-02
  0.108116E-02  0.984593E-03  0.973948E-03  0.984602E-03  0.108118E-02  0.126014E-02
  0.152423E-02  0.195108E-02  0.257562E-02  0.343109E-02  0.450293E-02  0.415700E-02
  0.542096E-02  0.675385E-02  0.787893E-02  0.853853E-02  0.853850E-02  0.787885E-02
  0.675374E-02  0.542085E-02  0.415690E-02  0.310653E-02  0.232925E-02  0.178494E-02
  0.141225E-02  0.118569E-02  0.104255E-02  0.984594E-03  0.984599E-03  0.104256E-02
  0.118572E-02  0.141229E-02  0.178498E-02  0.232931E-02  0.310661E-02  0.415700E-02
  0.410800E-02  0.552825E-02  0.713140E-02  0.867984E-02  0.981252E-02  0.102272E-01
  0.981245E-02  0.867973E-02  0.713127E-02  0.552813E-02  0.410790E-02  0.300145E-02
  0.223628E-02  0.171025E-02  0.137106E-02  0.118570E-02  0.108116E-02  0.104256E-02
  0.108117E-02  0.118571E-02  0.137109E-02  0.171029E-02  0.223634E-02  0.300153E-02
  0.410800E-02  0.417924E-02  0.579540E-02  0.777395E-02  0.988840E-02  0.117600E-01
  0.128902E-01  0.128902E-01  0.117599E-01  0.988825E-02  0.777380E-02  0.579527E-02
  0.417913E-02  0.298743E-02  0.219897E-02  0.171025E-02  0.141226E-02  0.126012E-02
  0.118570E-02  0.118571E-02  0.126013E-02  0.141228E-02  0.171029E-02  0.219902E-02
  0.298750E-02  0.417924E-02  0.422638E-02  0.599945E-02  0.836033E-02  0.111611E-01
  0.141402E-01  0.167516E-01  0.178478E-01  0.167515E-01  0.141400E-01  0.111609E-01
  0.836016E-02  0.599931E-02  0.422628E-02  0.298743E-02  0.223629E-02  0.178494E-02
  0.152420E-02  0.141227E-02  0.137108E-02  0.141228E-02  0.152422E-02  0.178497E-02
  0.223634E-02  0.298750E-02  0.422638E-02  0.417923E-02  0.599945E-02  0.858440E-02
  0.119914E-01  0.164069E-01  0.217554E-01  0.258771E-01  0.258770E-01  0.217552E-01
  0.164066E-01  0.119911E-01  0.858421E-02  0.599931E-02  0.417914E-02  0.300146E-02
  0.232925E-02  0.195104E-02  0.178496E-02  0.171028E-02  0.171028E-02  0.178497E-02
  0.195106E-02  0.232929E-02  0.300152E-02  0.417923E-02  0.410799E-02  0.579540E-02
  0.836034E-02  0.119914E-01  0.173830E-01  0.257119E-01  0.348908E-01  0.390399E-01
  0.348906E-01  0.257116E-01  0.173827E-01  0.119911E-01  0.836016E-02  0.579527E-02
  0.410790E-02  0.310654E-02  0.257557E-02  0.232928E-02  0.223633E-02  0.219902E-02
  0.223634E-02  0.232930E-02  0.257560E-02  0.310659E-02  0.410799E-02  0.415698E-02
  0.552824E-02  0.777396E-02  0.111611E-01  0.164069E-01  0.257119E-01  0.389972E-01
  0.494427E-01  0.494426E-01  0.389969E-01  0.257116E-01  0.164066E-01  0.111609E-01
  0.777380E-02  0.552813E-02  0.415691E-02  0.343102E-02  0.310658E-02  0.300152E-02
  0.298751E-02  0.298752E-02  0.300154E-02  0.310660E-02  0.343106E-02  0.415698E-02
  0.450289E-02  0.542094E-02  0.713140E-02  0.988843E-02  0.141402E-01  0.217555E-01
  0.348909E-01  0.494428E-01  0.559145E-01  0.494426E-01  0.348906E-01  0.217552E-01
  0.141400E-01  0.988824E-02  0.713128E-02  0.542086E-02  0.450284E-02  0.415698E-02
  0.410801E-02  0.417927E-02  0.422643E-02  0.417928E-02  0.410803E-02  0.415700E-02
  0.450289E-02  0.542098E-02  0.573892E-02  0.675384E-02  0.867986E-02  0.117601E-01
  0.167517E-01  0.258772E-01  0.390401E-01  0.494428E-01  0.494427E-01  0.390398E-01
  0.258769E-01  0.167514E-01  0.117599E-01  0.867972E-02  0.675375E-02  0.573887E-02
  0.542096E-02  0.552831E-02  0.579550E-02  0.599957E-02  0.599957E-02  0.579550E-02
  0.552832E-02  0.542098E-02  0.713152E-02  0.675390E-02  0.692186E-02  0.787894E-02
  0.981256E-02  0.128903E-01  0.178480E-01  0.258772E-01  0.348909E-01  0.389971E-01
  0.348907E-01  0.258770E-01  0.178478E-01  0.128901E-01  0.981244E-02  0.787885E-02
  0.692182E-02  0.675388E-02  0.713152E-02  0.777414E-02  0.836056E-02  0.858463E-02
  0.836055E-02  0.777413E-02  0.713152E-02  0.988868E-02  0.868002E-02  0.787902E-02
  0.778825E-02  0.853856E-02  0.102273E-01  0.128903E-01  0.167517E-01  0.217555E-01
  0.257119E-01  0.257118E-01  0.217553E-01  0.167515E-01  0.128902E-01  0.102272E-01
  0.853850E-02  0.778822E-02  0.787902E-02  0.868004E-02  0.988871E-02  0.111615E-01
  0.119918E-01  0.119918E-01  0.111615E-01  0.988868E-02  0.141407E-01  0.117604E-01
  0.981276E-02  0.853865E-02  0.812261E-02  0.853855E-02  0.981254E-02  0.117601E-01
  0.141402E-01  0.164068E-01  0.173829E-01  0.164068E-01  0.141401E-01  0.117600E-01
  0.981248E-02  0.853852E-02  0.812261E-02  0.853868E-02  0.981281E-02  0.117605E-01
  0.141408E-01  0.164076E-01  0.173837E-01  0.164075E-01  0.141407E-01  0.217564E-01
  0.167523E-01  0.128907E-01  0.102275E-01  0.853864E-02  0.778823E-02  0.787891E-02
  0.867982E-02  0.988838E-02  0.111611E-01  0.119913E-01  0.119913E-01  0.111610E-01
  0.988835E-02  0.867980E-02  0.787891E-02  0.778826E-02  0.853870E-02  0.102276E-01
  0.128908E-01  0.167524E-01  0.217565E-01  0.257131E-01  0.257130E-01  0.217564E-01
  0.348924E-01  0.258782E-01  0.178486E-01  0.128906E-01  0.981273E-02  0.787899E-02
  0.692183E-02  0.675381E-02  0.713136E-02  0.777391E-02  0.836029E-02  0.858434E-02
  0.836028E-02  0.777390E-02  0.713136E-02  0.675382E-02  0.692188E-02  0.787907E-02
  0.981285E-02  0.128908E-01  0.178488E-01  0.258784E-01  0.348926E-01  0.389990E-01
  0.348924E-01  0.494452E-01  0.390418E-01  0.258782E-01  0.167522E-01  0.117604E-01
  0.867998E-02  0.675387E-02  0.573889E-02  0.542091E-02  0.552820E-02  0.579536E-02
  0.599941E-02  0.599941E-02  0.579536E-02  0.552822E-02  0.542093E-02  0.573894E-02
  0.675396E-02  0.868012E-02  0.117606E-01  0.167525E-01  0.258785E-01  0.390420E-01
  0.494453E-01  0.494452E-01  0.559174E-01  0.494451E-01  0.348924E-01  0.217563E-01
  0.141406E-01  0.988863E-02  0.713148E-02  0.542095E-02  0.450286E-02  0.415695E-02
  0.410796E-02  0.417920E-02  0.422635E-02  0.417921E-02  0.410797E-02  0.415698E-02
  0.450291E-02  0.542103E-02  0.713161E-02  0.988881E-02  0.141409E-01  0.217566E-01
  0.348927E-01  0.494454E-01  0.559174E-01  0.590538E-01  0.537536E-01  0.419916E-01
  0.307613E-01  0.225120E-01  0.164088E-01  0.120751E-01  0.935366E-02  0.789882E-02
  0.732964E-02  0.724509E-02  0.735447E-02  0.742401E-02  0.735448E-02  0.724511E-02
  0.732968E-02  0.789888E-02  0.935375E-02  0.120752E-01  0.164090E-01  0.225122E-01
  0.307616E-01  0.419919E-01  0.537538E-01  0.590538E-01  0.537537E-01  0.537536E-01
  0.452947E-01  0.342701E-01  0.251884E-01  0.183052E-01  0.130910E-01  0.951644E-02
  0.732969E-02  0.616811E-02  0.564101E-02  0.547175E-02  0.544930E-02  0.544930E-02
  0.547176E-02  0.564104E-02  0.616816E-02  0.732977E-02  0.951656E-02  0.130912E-01
  0.183055E-01  0.251886E-01  0.342704E-01  0.452949E-01  0.537537E-01  0.419918E-01
  0.453743E-01  0.419917E-01  0.342701E-01  0.262501E-01  0.194871E-01  0.140023E-01
  0.994325E-02  0.724517E-02  0.564104E-02  0.477595E-02  0.436900E-02  0.421189E-02
  0.415889E-02  0.421190E-02  0.436902E-02  0.477599E-02  0.564110E-02  0.724526E-02
  0.994339E-02  0.140025E-01  0.194874E-01  0.262504E-01  0.342704E-01  0.419918E-01
  0.307615E-01  0.345448E-01  0.345448E-01  0.307614E-01  0.251884E-01  0.194872E-01
  0.143530E-01  0.102666E-01  0.735456E-02  0.547178E-02  0.436900E-02  0.375594E-02
  0.347050E-02  0.334412E-02  0.334412E-02  0.347052E-02  0.375597E-02  0.436905E-02
  0.547185E-02  0.735467E-02  0.102668E-01  0.143532E-01  0.194874E-01  0.251886E-01
  0.307615E-01  0.225122E-01  0.257546E-01  0.270066E-01  0.257545E-01  0.225120E-01
  0.183053E-01  0.140023E-01  0.102666E-01  0.742410E-02  0.544933E-02  0.421190E-02
  0.347050E-02  0.305067E-02  0.285345E-02  0.279058E-02  0.285346E-02  0.305070E-02
  0.347054E-02  0.421196E-02  0.544941E-02  0.742421E-02  0.102668E-01  0.140025E-01
  0.183055E-01  0.225122E-01  0.164090E-01  0.192658E-01  0.209336E-01  0.209335E-01
  0.192657E-01  0.164088E-01  0.130910E-01  0.994324E-02  0.735455E-02  0.544933E-02
  0.415889E-02  0.334411E-02  0.285344E-02  0.257881E-02  0.245879E-02  0.245879E-02
  0.257883E-02  0.285347E-02  0.334416E-02  0.415895E-02  0.544942E-02  0.735467E-02
  0.994339E-02  0.130912E-01  0.164090E-01  0.120752E-01  0.145274E-01  0.163221E-01
  0.169821E-01  0.163221E-01  0.145273E-01  0.120751E-01  0.951643E-02  0.724515E-02
  0.547177E-02  0.421189E-02  0.334411E-02  0.279057E-02  0.245878E-02  0.227063E-02
  0.221196E-02  0.227064E-02  0.245880E-02  0.279060E-02  0.334416E-02  0.421196E-02
  0.547186E-02  0.724527E-02  0.951656E-02  0.120752E-01  0.935376E-02  0.114756E-01
  0.132707E-01  0.143227E-01  0.143227E-01  0.132706E-01  0.114755E-01  0.935364E-02
  0.732966E-02  0.564101E-02  0.436899E-02  0.347048E-02  0.285343E-02  0.245878E-02
  0.221195E-02  0.209839E-02  0.209840E-02  0.221197E-02  0.245881E-02  0.285348E-02
  0.347054E-02  0.436906E-02  0.564111E-02  0.732977E-02  0.935376E-02  0.789889E-02