
     Program POST-PROC v.7.2 starts on 11Mar2025 at 23:41:36 

     This program is part of the open-source Quantum ESPRESSO suite
     for quantum simulation of materials; please cite
         "P. Giannozzi et al., J. Phys.:Condens. Matter 21 395502 (2009);
         "P. Giannozzi et al., J. Phys.:Condens. Matter 29 465901 (2017);
         "P. Giannozzi et al., J. Chem. Phys. 152 154105 (2020);
          URL http://www.quantum-espresso.org", 
     in publications or presentations arising from this work. More details at
     http://www.quantum-espresso.org/quote

     Serial version
     5370 MiB available memory on the printing compute node when the environment starts


     Reading xml data from directory:

     ./graphene.save/
     file C.pbe-n-kjpaw_psl.1.0.0.UPF: wavefunction(s)  2S 2P renormalized

     IMPORTANT: XC functional enforced from input :
     Exchange-correlation= PBE
                           (   1   4   3   4   0   0   0)
     Any further DFT definition will be discarded
     Please, verify this is what you really want


     G-vector sticks info
     --------------------
     sticks:   dense  smooth     PW     G-vecs:    dense   smooth      PW
     Sum         301     121     37                12531     3147     647

     Using Slab Decomposition


     Check: negative core charge=   -0.000041

     negative rho (up, down):  5.331E-06 0.000E+00

     Calling punch_plot, plot_num =   7

     Plotting k_point =   1  band =  1
     Writing data to file  psi2.graphene_K001_B001

     Calling punch_plot, plot_num =   7

     Plotting k_point =   1  band =  2
     Writing data to file  psi2.graphene_K001_B002
     Reading data from file  psi2.graphene_K001_B001

     Writing data to be plotted to file psi2.graphene_K001_B001.xsf
     Plot Type: 3D                     Output format: XCrySDen     
     Reading data from file  psi2.graphene_K001_B002

     Writing data to be plotted to file psi2.graphene_K001_B002.xsf
     Plot Type: 3D                     Output format: XCrySDen     

     POST-PROC    :     18.22s CPU     12.80s WALL


   This run was terminated on:  23:41:49  11Mar2025            

=------------------------------------------------------------------------------=
   JOB DONE.
=------------------------------------------------------------------------------=
